LAMMPS data file via write_data, version 27 Jun 2024, timestep = 1, units = metal

15552 atoms
2 atom types

0 30.537939206481354 xlo xhi
0 26.446631132037652 ylo yhi
0 224.407106556037 zlo zhi

Masses

1 58.69
2 56.12

Atoms # atomic

1 1 2.544828 0.000000 0.000000
2 2 1.272414 2.203886 0.000000
3 2 3.817242 2.203886 0.000000
4 1 0.000000 0.000000 0.000000
5 1 2.544828 4.407772 0.000000
6 2 3.817242 6.611658 0.000000
7 2 1.272414 6.611658 0.000000
8 2 0.000000 4.407772 0.000000
9 1 0.000000 7.346283 2.077842
10 1 2.544828 7.346283 2.077842
11 2 3.817242 5.142398 2.077842
12 2 1.272414 5.142398 2.077842
13 2 0.000000 2.938512 2.077842
14 2 2.544828 2.938512 2.077842
15 2 3.817242 0.734628 2.077842
16 2 1.272414 0.734628 2.077842
17 2 2.544828 5.877032 4.155689
18 2 1.272414 8.080918 4.155689
19 2 2.544828 1.469260 4.155689
20 2 3.817242 3.673146 4.155689
21 1 1.272414 3.673146 4.155689
22 1 0.000000 1.469260 4.155689
23 2 3.817242 8.080918 4.155689
24 2 0.000000 5.877032 4.155689
25 1 2.544828 0.000000 6.233531
26 1 1.272414 2.203886 6.233531
27 2 3.817242 2.203886 6.233531
28 1 0.000000 0.000000 6.233531
29 1 2.544828 4.407772 6.233531
30 2 3.817242 6.611658 6.233531
31 1 1.272414 6.611658 6.233531
32 2 0.000000 4.407772 6.233531
33 1 0.000000 7.346283 8.311372
34 1 2.544828 7.346283 8.311372
35 1 3.817242 5.142398 8.311372
36 1 1.272414 5.142398 8.311372
37 2 0.000000 2.938512 8.311372
38 2 2.544828 2.938512 8.311372
39 2 3.817242 0.734628 8.311372
40 1 1.272414 0.734628 8.311372
41 2 2.544828 5.877032 10.389220
42 1 1.272414 8.080918 10.389220
43 1 2.544828 1.469260 10.389220
44 1 3.817242 3.673146 10.389220
45 2 1.272414 3.673146 10.389220
46 2 0.000000 1.469260 10.389220
47 2 3.817242 8.080918 10.389220
48 1 0.000000 5.877032 10.389220
49 1 2.544828 0.000000 12.467061
50 2 1.272414 2.203886 12.467061
51 2 3.817242 2.203886 12.467061
52 2 0.000000 0.000000 12.467061
53 2 2.544828 4.407772 12.467061
54 1 3.817242 6.611658 12.467061
55 1 1.272414 6.611658 12.467061
56 1 0.000000 4.407772 12.467061
57 2 0.000000 7.346283 14.544903
58 1 2.544828 7.346283 14.544903
59 1 3.817242 5.142398 14.544903
60 2 1.272414 5.142398 14.544903
61 2 0.000000 2.938512 14.544903
62 1 2.544828 2.938512 14.544903
63 1 3.817242 0.734628 14.544903
64 2 1.272414 0.734628 14.544903
65 2 2.544828 5.877032 16.622751
66 2 1.272414 8.080918 16.622751
67 1 2.544828 1.469260 16.622751
68 1 3.817242 3.673146 16.622751
69 2 1.272414 3.673146 16.622751
70 2 0.000000 1.469260 16.622751
71 1 3.817242 8.080918 16.622751
72 1 0.000000 5.877032 16.622751
73 2 2.544828 0.000000 18.700592
74 1 1.272414 2.203886 18.700592
75 2 3.817242 2.203886 18.700592
76 1 0.000000 0.000000 18.700592
77 1 2.544828 4.407772 18.700592
78 2 3.817242 6.611658 18.700592
79 1 1.272414 6.611658 18.700592
80 2 0.000000 4.407772 18.700592
81 2 0.000000 7.346283 20.778434
82 1 2.544828 7.346283 20.778434
83 1 3.817242 5.142398 20.778434
84 2 1.272414 5.142398 20.778434
85 1 0.000000 2.938512 20.778434
86 2 2.544828 2.938512 20.778434
87 2 3.817242 0.734628 20.778434
88 1 1.272414 0.734628 20.778434
89 2 2.544828 5.877032 22.856281
90 2 1.272414 8.080918 22.856281
91 2 2.544828 1.469260 22.856281
92 1 3.817242 3.673146 22.856281
93 1 1.272414 3.673146 22.856281
94 2 0.000000 1.469260 22.856281
95 2 3.817242 8.080918 22.856281
96 1 0.000000 5.877032 22.856281
97 2 2.544828 0.000000 24.934123
98 1 1.272414 2.203886 24.934123
99 1 3.817242 2.203886 24.934123
100 2 0.000000 0.000000 24.934123
101 1 2.544828 4.407772 24.934123
102 2 3.817242 6.611658 24.934123
103 2 1.272414 6.611658 24.934123
104 2 0.000000 4.407772 24.934123
105 2 0.000000 7.346283 27.011964
106 2 2.544828 7.346283 27.011964
107 1 3.817242 5.142398 27.011964
108 2 1.272414 5.142398 27.011964
109 2 0.000000 2.938512 27.011964
110 2 2.544828 2.938512 27.011964
111 2 3.817242 0.734628 27.011964
112 1 1.272414 0.734628 27.011964
113 2 2.544828 5.877032 29.089812
114 2 1.272414 8.080918 29.089812
115 1 2.544828 1.469260 29.089812
116 1 3.817242 3.673146 29.089812
117 2 1.272414 3.673146 29.089812
118 1 0.000000 1.469260 29.089812
119 2 3.817242 8.080918 29.089812
120 1 0.000000 5.877032 29.089812
121 2 2.544828 0.000000 31.167654
122 2 1.272414 2.203886 31.167654
123 1 3.817242 2.203886 31.167654
124 1 0.000000 0.000000 31.167654
125 1 2.544828 4.407772 31.167654
126 1 3.817242 6.611658 31.167654
127 1 1.272414 6.611658 31.167654
128 1 0.000000 4.407772 31.167654
129 1 0.000000 7.346283 33.245495
130 2 2.544828 7.346283 33.245495
131 1 3.817242 5.142398 33.245495
132 1 1.272414 5.142398 33.245495
133 1 0.000000 2.938512 33.245495
134 2 2.544828 2.938512 33.245495
135 1 3.817242 0.734628 33.245495
136 2 1.272414 0.734628 33.245495
137 2 2.544828 5.877032 35.323343
138 1 1.272414 8.080918 35.323343
139 2 2.544828 1.469260 35.323343
140 1 3.817242 3.673146 35.323343
141 1 1.272414 3.673146 35.323343
142 2 0.000000 1.469260 35.323343
143 2 3.817242 8.080918 35.323343
144 2 0.000000 5.877032 35.323343
145 1 2.544828 0.000000 37.401184
146 1 1.272414 2.203886 37.401184
147 1 3.817242 2.203886 37.401184
148 2 0.000000 0.000000 37.401184
149 2 2.544828 4.407772 37.401184
150 2 3.817242 6.611658 37.401184
151 1 1.272414 6.611658 37.401184
152 2 0.000000 4.407772 37.401184
153 2 0.000000 7.346283 39.479026
154 1 2.544828 7.346283 39.479026
155 2 3.817242 5.142398 39.479026
156 2 1.272414 5.142398 39.479026
157 2 0.000000 2.938512 39.479026
158 1 2.544828 2.938512 39.479026
159 2 3.817242 0.734628 39.479026
160 2 1.272414 0.734628 39.479026
161 1 2.544828 5.877032 41.556874
162 2 1.272414 8.080918 41.556874
163 1 2.544828 1.469260 41.556874
164 2 3.817242 3.673146 41.556874
165 1 1.272414 3.673146 41.556874
166 2 0.000000 1.469260 41.556874
167 2 3.817242 8.080918 41.556874
168 2 0.000000 5.877032 41.556874
169 2 2.544828 0.000000 43.634715
170 1 1.272414 2.203886 43.634715
171 1 3.817242 2.203886 43.634715
172 1 0.000000 0.000000 43.634715
173 2 2.544828 4.407772 43.634715
174 2 3.817242 6.611658 43.634715
175 1 1.272414 6.611658 43.634715
176 2 0.000000 4.407772 43.634715
177 2 0.000000 7.346283 45.712557
178 1 2.544828 7.346283 45.712557
179 2 3.817242 5.142398 45.712557
180 2 1.272414 5.142398 45.712557
181 1 0.000000 2.938512 45.712557
182 2 2.544828 2.938512 45.712557
183 2 3.817242 0.734628 45.712557
184 1 1.272414 0.734628 45.712557
185 1 2.544828 5.877032 47.790404
186 2 1.272414 8.080918 47.790404
187 2 2.544828 1.469260 47.790404
188 1 3.817242 3.673146 47.790404
189 2 1.272414 3.673146 47.790404
190 1 0.000000 1.469260 47.790404
191 2 3.817242 8.080918 47.790404
192 2 0.000000 5.877032 47.790404
193 2 2.544828 0.000000 49.868246
194 1 1.272414 2.203886 49.868246
195 2 3.817242 2.203886 49.868246
196 1 0.000000 0.000000 49.868246
197 2 2.544828 4.407772 49.868246
198 2 3.817242 6.611658 49.868246
199 1 1.272414 6.611658 49.868246
200 2 0.000000 4.407772 49.868246
201 2 0.000000 7.346283 51.946087
202 2 2.544828 7.346283 51.946087
203 1 3.817242 5.142398 51.946087
204 2 1.272414 5.142398 51.946087
205 1 0.000000 2.938512 51.946087
206 1 2.544828 2.938512 51.946087
207 1 3.817242 0.734628 51.946087
208 2 1.272414 0.734628 51.946087
209 2 2.544828 5.877032 54.023935
210 1 1.272414 8.080918 54.023935
211 1 2.544828 1.469260 54.023935
212 2 3.817242 3.673146 54.023935
213 1 1.272414 3.673146 54.023935
214 2 0.000000 1.469260 54.023935
215 1 3.817242 8.080918 54.023935
216 2 0.000000 5.877032 54.023935
217 2 2.544828 0.000000 56.101777
218 2 1.272414 2.203886 56.101777
219 1 3.817242 2.203886 56.101777
220 2 0.000000 0.000000 56.101777
221 1 2.544828 4.407772 56.101777
222 1 3.817242 6.611658 56.101777
223 2 1.272414 6.611658 56.101777
224 1 0.000000 4.407772 56.101777
225 2 0.000000 7.346283 58.179618
226 2 2.544828 7.346283 58.179618
227 2 3.817242 5.142398 58.179618
228 1 1.272414 5.142398 58.179618
229 2 0.000000 2.938512 58.179618
230 1 2.544828 2.938512 58.179618
231 2 3.817242 0.734628 58.179618
232 2 1.272414 0.734628 58.179618
233 2 2.544828 5.877032 60.257466
234 2 1.272414 8.080918 60.257466
235 1 2.544828 1.469260 60.257466
236 2 3.817242 3.673146 60.257466
237 1 1.272414 3.673146 60.257466
238 2 0.000000 1.469260 60.257466
239 1 3.817242 8.080918 60.257466
240 2 0.000000 5.877032 60.257466
241 2 2.544828 0.000000 62.335307
242 2 1.272414 2.203886 62.335307
243 1 3.817242 2.203886 62.335307
244 1 0.000000 0.000000 62.335307
245 1 2.544828 4.407772 62.335307
246 2 3.817242 6.611658 62.335307
247 1 1.272414 6.611658 62.335307
248 1 0.000000 4.407772 62.335307
249 1 0.000000 7.346283 64.413149
250 2 2.544828 7.346283 64.413149
251 2 3.817242 5.142398 64.413149
252 1 1.272414 5.142398 64.413149
253 2 0.000000 2.938512 64.413149
254 2 2.544828 2.938512 64.413149
255 2 3.817242 0.734628 64.413149
256 2 1.272414 0.734628 64.413149
257 2 2.544828 5.877032 66.490997
258 1 1.272414 8.080918 66.490997
259 1 2.544828 1.469260 66.490997
260 2 3.817242 3.673146 66.490997
261 2 1.272414 3.673146 66.490997
262 2 0.000000 1.469260 66.490997
263 1 3.817242 8.080918 66.490997
264 2 0.000000 5.877032 66.490997
265 1 2.544828 0.000000 68.568838
266 2 1.272414 2.203886 68.568838
267 1 3.817242 2.203886 68.568838
268 2 0.000000 0.000000 68.568838
269 2 2.544828 4.407772 68.568838
270 2 3.817242 6.611658 68.568838
271 2 1.272414 6.611658 68.568838
272 1 0.000000 4.407772 68.568838
273 2 0.000000 7.346283 70.646680
274 2 2.544828 7.346283 70.646680
275 2 3.817242 5.142398 70.646680
276 2 1.272414 5.142398 70.646680
277 2 0.000000 2.938512 70.646680
278 2 2.544828 2.938512 70.646680
279 2 3.817242 0.734628 70.646680
280 2 1.272414 0.734628 70.646680
281 1 2.544828 5.877032 72.724527
282 2 1.272414 8.080918 72.724527
283 1 2.544828 1.469260 72.724527
284 1 3.817242 3.673146 72.724527
285 1 1.272414 3.673146 72.724527
286 1 0.000000 1.469260 72.724527
287 1 3.817242 8.080918 72.724527
288 1 0.000000 5.877032 72.724527
289 1 2.544828 0.000000 74.802369
290 1 1.272414 2.203886 74.802369
291 1 3.817242 2.203886 74.802369
292 1 0.000000 0.000000 74.802369
293 1 2.544828 4.407772 74.802369
294 1 3.817242 6.611658 74.802369
295 1 1.272414 6.611658 74.802369
296 1 0.000000 4.407772 74.802369
297 1 0.000000 7.346283 76.880210
298 2 2.544828 7.346283 76.880210
299 2 3.817242 5.142398 76.880210
300 2 1.272414 5.142398 76.880210
301 2 0.000000 2.938512 76.880210
302 1 2.544828 2.938512 76.880210
303 2 3.817242 0.734628 76.880210
304 2 1.272414 0.734628 76.880210
305 1 2.544828 5.877032 78.958058
306 1 1.272414 8.080918 78.958058
307 2 2.544828 1.469260 78.958058
308 2 3.817242 3.673146 78.958058
309 1 1.272414 3.673146 78.958058
310 2 0.000000 1.469260 78.958058
311 1 3.817242 8.080918 78.958058
312 1 0.000000 5.877032 78.958058
313 2 2.544828 0.000000 81.035900
314 1 1.272414 2.203886 81.035900
315 2 3.817242 2.203886 81.035900
316 1 0.000000 0.000000 81.035900
317 1 2.544828 4.407772 81.035900
318 1 3.817242 6.611658 81.035900
319 1 1.272414 6.611658 81.035900
320 1 0.000000 4.407772 81.035900
321 1 0.000000 7.346283 83.113741
322 2 2.544828 7.346283 83.113741
323 2 3.817242 5.142398 83.113741
324 1 1.272414 5.142398 83.113741
325 2 0.000000 2.938512 83.113741
326 2 2.544828 2.938512 83.113741
327 2 3.817242 0.734628 83.113741
328 2 1.272414 0.734628 83.113741
329 1 2.544828 5.877032 85.191589
330 1 1.272414 8.080918 85.191589
331 2 2.544828 1.469260 85.191589
332 2 3.817242 3.673146 85.191589
333 2 1.272414 3.673146 85.191589
334 1 0.000000 1.469260 85.191589
335 2 3.817242 8.080918 85.191589
336 1 0.000000 5.877032 85.191589
337 2 2.544828 0.000000 87.269430
338 2 1.272414 2.203886 87.269430
339 1 3.817242 2.203886 87.269430
340 2 0.000000 0.000000 87.269430
341 1 2.544828 4.407772 87.269430
342 2 3.817242 6.611658 87.269430
343 1 1.272414 6.611658 87.269430
344 2 0.000000 4.407772 87.269430
345 1 0.000000 7.346283 89.347272
346 2 2.544828 7.346283 89.347272
347 1 3.817242 5.142398 89.347272
348 1 1.272414 5.142398 89.347272
349 2 0.000000 2.938512 89.347272
350 2 2.544828 2.938512 89.347272
351 2 3.817242 0.734628 89.347272
352 1 1.272414 0.734628 89.347272
353 1 2.544828 5.877032 91.425120
354 1 1.272414 8.080918 91.425120
355 1 2.544828 1.469260 91.425120
356 1 3.817242 3.673146 91.425120
357 2 1.272414 3.673146 91.425120
358 1 0.000000 1.469260 91.425120
359 1 3.817242 8.080918 91.425120
360 2 0.000000 5.877032 91.425120
361 1 2.544828 0.000000 93.502961
362 1 1.272414 2.203886 93.502961
363 1 3.817242 2.203886 93.502961
364 1 0.000000 0.000000 93.502961
365 2 2.544828 4.407772 93.502961
366 1 3.817242 6.611658 93.502961
367 1 1.272414 6.611658 93.502961
368 2 0.000000 4.407772 93.502961
369 2 0.000000 7.346283 95.580803
370 1 2.544828 7.346283 95.580803
371 2 3.817242 5.142398 95.580803
372 2 1.272414 5.142398 95.580803
373 1 0.000000 2.938512 95.580803
374 2 2.544828 2.938512 95.580803
375 2 3.817242 0.734628 95.580803
376 1 1.272414 0.734628 95.580803
377 1 2.544828 5.877032 97.658650
378 2 1.272414 8.080918 97.658650
379 2 2.544828 1.469260 97.658650
380 1 3.817242 3.673146 97.658650
381 1 1.272414 3.673146 97.658650
382 2 0.000000 1.469260 97.658650
383 2 3.817242 8.080918 97.658650
384 1 0.000000 5.877032 97.658650
385 1 2.544828 0.000000 99.736492
386 2 1.272414 2.203886 99.736492
387 2 3.817242 2.203886 99.736492
388 2 0.000000 0.000000 99.736492
389 1 2.544828 4.407772 99.736492
390 1 3.817242 6.611658 99.736492
391 2 1.272414 6.611658 99.736492
392 2 0.000000 4.407772 99.736492
393 2 0.000000 7.346283 101.814333
394 1 2.544828 7.346283 101.814333
395 1 3.817242 5.142398 101.814333
396 2 1.272414 5.142398 101.814333
397 2 0.000000 2.938512 101.814333
398 1 2.544828 2.938512 101.814333
399 1 3.817242 0.734628 101.814333
400 2 1.272414 0.734628 101.814333
401 2 2.544828 5.877032 103.892181
402 2 1.272414 8.080918 103.892181
403 2 2.544828 1.469260 103.892181
404 2 3.817242 3.673146 103.892181
405 2 1.272414 3.673146 103.892181
406 2 0.000000 1.469260 103.892181
407 2 3.817242 8.080918 103.892181
408 2 0.000000 5.877032 103.892181
409 2 2.544828 0.000000 105.970023
410 1 1.272414 2.203886 105.970023
411 2 3.817242 2.203886 105.970023
412 2 0.000000 0.000000 105.970023
413 2 2.544828 4.407772 105.970023
414 1 3.817242 6.611658 105.970023
415 1 1.272414 6.611658 105.970023
416 1 0.000000 4.407772 105.970023
417 1 0.000000 7.346283 108.047864
418 2 2.544828 7.346283 108.047864
419 1 3.817242 5.142398 108.047864
420 2 1.272414 5.142398 108.047864
421 2 0.000000 2.938512 108.047864
422 2 2.544828 2.938512 108.047864
423 1 3.817242 0.734628 108.047864
424 2 1.272414 0.734628 108.047864
425 2 2.544828 5.877032 110.125712
426 2 1.272414 8.080918 110.125712
427 1 2.544828 1.469260 110.125712
428 1 3.817242 3.673146 110.125712
429 2 1.272414 3.673146 110.125712
430 2 0.000000 1.469260 110.125712
431 1 3.817242 8.080918 110.125712
432 2 0.000000 5.877032 110.125712
433 2 2.544828 0.000000 112.203553
434 2 1.272414 2.203886 112.203553
435 1 3.817242 2.203886 112.203553
436 1 0.000000 0.000000 112.203553
437 2 2.544828 4.407772 112.203553
438 2 3.817242 6.611658 112.203553
439 2 1.272414 6.611658 112.203553
440 2 0.000000 4.407772 112.203553
441 2 0.000000 7.346283 114.281395
442 2 2.544828 7.346283 114.281395
443 1 3.817242 5.142398 114.281395
444 2 1.272414 5.142398 114.281395
445 2 0.000000 2.938512 114.281395
446 1 2.544828 2.938512 114.281395
447 2 3.817242 0.734628 114.281395
448 1 1.272414 0.734628 114.281395
449 1 2.544828 5.877032 116.359243
450 2 1.272414 8.080918 116.359243
451 1 2.544828 1.469260 116.359243
452 1 3.817242 3.673146 116.359243
453 1 1.272414 3.673146 116.359243
454 2 0.000000 1.469260 116.359243
455 1 3.817242 8.080918 116.359243
456 2 0.000000 5.877032 116.359243
457 2 2.544828 0.000000 118.437084
458 2 1.272414 2.203886 118.437084
459 2 3.817242 2.203886 118.437084
460 1 0.000000 0.000000 118.437084
461 2 2.544828 4.407772 118.437084
462 1 3.817242 6.611658 118.437084
463 2 1.272414 6.611658 118.437084
464 1 0.000000 4.407772 118.437084
465 1 0.000000 7.346283 120.514926
466 2 2.544828 7.346283 120.514926
467 1 3.817242 5.142398 120.514926
468 2 1.272414 5.142398 120.514926
469 1 0.000000 2.938512 120.514926
470 2 2.544828 2.938512 120.514926
471 2 3.817242 0.734628 120.514926
472 2 1.272414 0.734628 120.514926
473 1 2.544828 5.877032 122.592773
474 2 1.272414 8.080918 122.592773
475 1 2.544828 1.469260 122.592773
476 2 3.817242 3.673146 122.592773
477 2 1.272414 3.673146 122.592773
478 2 0.000000 1.469260 122.592773
479 1 3.817242 8.080918 122.592773
480 2 0.000000 5.877032 122.592773
481 2 2.544828 0.000000 124.670615
482 2 1.272414 2.203886 124.670615
483 1 3.817242 2.203886 124.670615
484 2 0.000000 0.000000 124.670615
485 1 2.544828 4.407772 124.670615
486 2 3.817242 6.611658 124.670615
487 1 1.272414 6.611658 124.670615
488 2 0.000000 4.407772 124.670615
489 2 0.000000 7.346283 126.748456
490 2 2.544828 7.346283 126.748456
491 1 3.817242 5.142398 126.748456
492 2 1.272414 5.142398 126.748456
493 1 0.000000 2.938512 126.748456
494 2 2.544828 2.938512 126.748456
495 1 3.817242 0.734628 126.748456
496 1 1.272414 0.734628 126.748456
497 2 2.544828 5.877032 128.826304
498 1 1.272414 8.080918 128.826304
499 1 2.544828 1.469260 128.826304
500 1 3.817242 3.673146 128.826304
501 1 1.272414 3.673146 128.826304
502 1 0.000000 1.469260 128.826304
503 2 3.817242 8.080918 128.826304
504 2 0.000000 5.877032 128.826304
505 2 2.544828 0.000000 130.904145
506 1 1.272414 2.203886 130.904145
507 2 3.817242 2.203886 130.904145
508 1 0.000000 0.000000 130.904145
509 2 2.544828 4.407772 130.904145
510 2 3.817242 6.611658 130.904145
511 2 1.272414 6.611658 130.904145
512 2 0.000000 4.407772 130.904145
513 2 0.000000 7.346283 132.981987
514 1 2.544828 7.346283 132.981987
515 2 3.817242 5.142398 132.981987
516 2 1.272414 5.142398 132.981987
517 1 0.000000 2.938512 132.981987
518 1 2.544828 2.938512 132.981987
519 1 3.817242 0.734628 132.981987
520 1 1.272414 0.734628 132.981987
521 2 2.544828 5.877032 135.059835
522 2 1.272414 8.080918 135.059835
523 2 2.544828 1.469260 135.059835
524 2 3.817242 3.673146 135.059835
525 1 1.272414 3.673146 135.059835
526 2 0.000000 1.469260 135.059835
527 2 3.817242 8.080918 135.059835
528 2 0.000000 5.877032 135.059835
529 2 2.544828 0.000000 137.137676
530 2 1.272414 2.203886 137.137676
531 2 3.817242 2.203886 137.137676
532 1 0.000000 0.000000 137.137676
533 2 2.544828 4.407772 137.137676
534 1 3.817242 6.611658 137.137676
535 2 1.272414 6.611658 137.137676
536 2 0.000000 4.407772 137.137676
537 1 0.000000 7.346283 139.215518
538 2 2.544828 7.346283 139.215518
539 2 3.817242 5.142398 139.215518
540 2 1.272414 5.142398 139.215518
541 2 0.000000 2.938512 139.215518
542 2 2.544828 2.938512 139.215518
543 1 3.817242 0.734628 139.215518
544 1 1.272414 0.734628 139.215518
545 1 2.544828 5.877032 141.293365
546 1 1.272414 8.080918 141.293365
547 2 2.544828 1.469260 141.293365
548 1 3.817242 3.673146 141.293365
549 2 1.272414 3.673146 141.293365
550 2 0.000000 1.469260 141.293365
551 1 3.817242 8.080918 141.293365
552 1 0.000000 5.877032 141.293365
553 1 2.544828 0.000000 143.371207
554 2 1.272414 2.203886 143.371207
555 2 3.817242 2.203886 143.371207
556 2 0.000000 0.000000 143.371207
557 1 2.544828 4.407772 143.371207
558 2 3.817242 6.611658 143.371207
559 1 1.272414 6.611658 143.371207
560 1 0.000000 4.407772 143.371207
561 2 0.000000 7.346283 145.449048
562 2 2.544828 7.346283 145.449048
563 1 3.817242 5.142398 145.449048
564 2 1.272414 5.142398 145.449048
565 2 0.000000 2.938512 145.449048
566 1 2.544828 2.938512 145.449048
567 2 3.817242 0.734628 145.449048
568 2 1.272414 0.734628 145.449048
569 2 2.544828 5.877032 147.526896
570 1 1.272414 8.080918 147.526896
571 2 2.544828 1.469260 147.526896
572 2 3.817242 3.673146 147.526896
573 1 1.272414 3.673146 147.526896
574 1 0.000000 1.469260 147.526896
575 2 3.817242 8.080918 147.526896
576 1 0.000000 5.877032 147.526896
577 2 2.544828 0.000000 149.604738
578 2 1.272414 2.203886 149.604738
579 1 3.817242 2.203886 149.604738
580 1 0.000000 0.000000 149.604738
581 2 2.544828 4.407772 149.604738
582 2 3.817242 6.611658 149.604738
583 1 1.272414 6.611658 149.604738
584 2 0.000000 4.407772 149.604738
585 1 0.000000 7.346283 151.682579
586 1 2.544828 7.346283 151.682579
587 2 3.817242 5.142398 151.682579
588 2 1.272414 5.142398 151.682579
589 2 0.000000 2.938512 151.682579
590 2 2.544828 2.938512 151.682579
591 1 3.817242 0.734628 151.682579
592 1 1.272414 0.734628 151.682579
593 2 2.544828 5.877032 153.760427
594 2 1.272414 8.080918 153.760427
595 1 2.544828 1.469260 153.760427
596 1 3.817242 3.673146 153.760427
597 2 1.272414 3.673146 153.760427
598 1 0.000000 1.469260 153.760427
599 2 3.817242 8.080918 153.760427
600 2 0.000000 5.877032 153.760427
601 1 2.544828 0.000000 155.838268
602 2 1.272414 2.203886 155.838268
603 1 3.817242 2.203886 155.838268
604 2 0.000000 0.000000 155.838268
605 2 2.544828 4.407772 155.838268
606 2 3.817242 6.611658 155.838268
607 2 1.272414 6.611658 155.838268
608 2 0.000000 4.407772 155.838268
609 2 0.000000 7.346283 157.916110
610 2 2.544828 7.346283 157.916110
611 2 3.817242 5.142398 157.916110
612 2 1.272414 5.142398 157.916110
613 2 0.000000 2.938512 157.916110
614 2 2.544828 2.938512 157.916110
615 2 3.817242 0.734628 157.916110
616 1 1.272414 0.734628 157.916110
617 2 2.544828 5.877032 159.993958
618 2 1.272414 8.080918 159.993958
619 1 2.544828 1.469260 159.993958
620 2 3.817242 3.673146 159.993958
621 1 1.272414 3.673146 159.993958
622 1 0.000000 1.469260 159.993958
623 1 3.817242 8.080918 159.993958
624 1 0.000000 5.877032 159.993958
625 2 2.544828 0.000000 162.071799
626 2 1.272414 2.203886 162.071799
627 1 3.817242 2.203886 162.071799
628 2 0.000000 0.000000 162.071799
629 1 2.544828 4.407772 162.071799
630 1 3.817242 6.611658 162.071799
631 1 1.272414 6.611658 162.071799
632 1 0.000000 4.407772 162.071799
633 2 0.000000 7.346283 164.149641
634 1 2.544828 7.346283 164.149641
635 1 3.817242 5.142398 164.149641
636 2 1.272414 5.142398 164.149641
637 2 0.000000 2.938512 164.149641
638 2 2.544828 2.938512 164.149641
639 1 3.817242 0.734628 164.149641
640 1 1.272414 0.734628 164.149641
641 2 2.544828 5.877032 166.227488
642 2 1.272414 8.080918 166.227488
643 1 2.544828 1.469260 166.227488
644 2 3.817242 3.673146 166.227488
645 1 1.272414 3.673146 166.227488
646 2 0.000000 1.469260 166.227488
647 1 3.817242 8.080918 166.227488
648 1 0.000000 5.877032 166.227488
649 1 2.544828 0.000000 168.305330
650 1 1.272414 2.203886 168.305330
651 2 3.817242 2.203886 168.305330
652 2 0.000000 0.000000 168.305330
653 1 2.544828 4.407772 168.305330
654 2 3.817242 6.611658 168.305330
655 1 1.272414 6.611658 168.305330
656 2 0.000000 4.407772 168.305330
657 1 0.000000 7.346283 170.383171
658 1 2.544828 7.346283 170.383171
659 2 3.817242 5.142398 170.383171
660 2 1.272414 5.142398 170.383171
661 2 0.000000 2.938512 170.383171
662 1 2.544828 2.938512 170.383171
663 2 3.817242 0.734628 170.383171
664 1 1.272414 0.734628 170.383171
665 1 2.544828 5.877032 172.461019
666 1 1.272414 8.080918 172.461019
667 1 2.544828 1.469260 172.461019
668 2 3.817242 3.673146 172.461019
669 2 1.272414 3.673146 172.461019
670 1 0.000000 1.469260 172.461019
671 2 3.817242 8.080918 172.461019
672 2 0.000000 5.877032 172.461019
673 1 2.544828 0.000000 174.538861
674 1 1.272414 2.203886 174.538861
675 1 3.817242 2.203886 174.538861
676 1 0.000000 0.000000 174.538861
677 2 2.544828 4.407772 174.538861
678 1 3.817242 6.611658 174.538861
679 1 1.272414 6.611658 174.538861
680 1 0.000000 4.407772 174.538861
681 1 0.000000 7.346283 176.616702
682 2 2.544828 7.346283 176.616702
683 2 3.817242 5.142398 176.616702
684 2 1.272414 5.142398 176.616702
685 1 0.000000 2.938512 176.616702
686 2 2.544828 2.938512 176.616702
687 2 3.817242 0.734628 176.616702
688 2 1.272414 0.734628 176.616702
689 2 2.544828 5.877032 178.694550
690 2 1.272414 8.080918 178.694550
691 2 2.544828 1.469260 178.694550
692 1 3.817242 3.673146 178.694550
693 1 1.272414 3.673146 178.694550
694 2 0.000000 1.469260 178.694550
695 1 3.817242 8.080918 178.694550
696 2 0.000000 5.877032 178.694550
697 2 2.544828 0.000000 180.772391
698 1 1.272414 2.203886 180.772391
699 2 3.817242 2.203886 180.772391
700 2 0.000000 0.000000 180.772391
701 2 2.544828 4.407772 180.772391
702 2 3.817242 6.611658 180.772391
703 2 1.272414 6.611658 180.772391
704 1 0.000000 4.407772 180.772391
705 1 0.000000 7.346283 182.850233
706 2 2.544828 7.346283 182.850233
707 1 3.817242 5.142398 182.850233
708 2 1.272414 5.142398 182.850233
709 1 0.000000 2.938512 182.850233
710 2 2.544828 2.938512 182.850233
711 2 3.817242 0.734628 182.850233
712 2 1.272414 0.734628 182.850233
713 2 2.544828 5.877032 184.928081
714 1 1.272414 8.080918 184.928081
715 2 2.544828 1.469260 184.928081
716 2 3.817242 3.673146 184.928081
717 2 1.272414 3.673146 184.928081
718 1 0.000000 1.469260 184.928081
719 1 3.817242 8.080918 184.928081
720 1 0.000000 5.877032 184.928081
721 2 2.544828 0.000000 187.005922
722 2 1.272414 2.203886 187.005922
723 2 3.817242 2.203886 187.005922
724 1 0.000000 0.000000 187.005922
725 1 2.544828 4.407772 187.005922
726 1 3.817242 6.611658 187.005922
727 2 1.272414 6.611658 187.005922
728 2 0.000000 4.407772 187.005922
729 1 0.000000 7.346283 189.083764
730 1 2.544828 7.346283 189.083764
731 1 3.817242 5.142398 189.083764
732 1 1.272414 5.142398 189.083764
733 1 0.000000 2.938512 189.083764
734 1 2.544828 2.938512 189.083764
735 2 3.817242 0.734628 189.083764
736 1 1.272414 0.734628 189.083764
737 1 2.544828 5.877032 191.161611
738 2 1.272414 8.080918 191.161611
739 1 2.544828 1.469260 191.161611
740 2 3.817242 3.673146 191.161611
741 1 1.272414 3.673146 191.161611
742 1 0.000000 1.469260 191.161611
743 1 3.817242 8.080918 191.161611
744 1 0.000000 5.877032 191.161611
745 2 2.544828 0.000000 193.239453
746 1 1.272414 2.203886 193.239453
747 1 3.817242 2.203886 193.239453
748 1 0.000000 0.000000 193.239453
749 1 2.544828 4.407772 193.239453
750 1 3.817242 6.611658 193.239453
751 1 1.272414 6.611658 193.239453
752 2 0.000000 4.407772 193.239453
753 1 0.000000 7.346283 195.317294
754 2 2.544828 7.346283 195.317294
755 1 3.817242 5.142398 195.317294
756 2 1.272414 5.142398 195.317294
757 1 0.000000 2.938512 195.317294
758 1 2.544828 2.938512 195.317294
759 2 3.817242 0.734628 195.317294
760 1 1.272414 0.734628 195.317294
761 1 2.544828 5.877032 197.395142
762 2 1.272414 8.080918 197.395142
763 1 2.544828 1.469260 197.395142
764 1 3.817242 3.673146 197.395142
765 1 1.272414 3.673146 197.395142
766 2 0.000000 1.469260 197.395142
767 2 3.817242 8.080918 197.395142
768 1 0.000000 5.877032 197.395142
769 1 2.544828 0.000000 199.472984
770 2 1.272414 2.203886 199.472984
771 1 3.817242 2.203886 199.472984
772 1 0.000000 0.000000 199.472984
773 1 2.544828 4.407772 199.472984
774 1 3.817242 6.611658 199.472984
775 1 1.272414 6.611658 199.472984
776 2 0.000000 4.407772 199.472984
777 2 0.000000 7.346283 201.550825
778 1 2.544828 7.346283 201.550825
779 1 3.817242 5.142398 201.550825
780 1 1.272414 5.142398 201.550825
781 1 0.000000 2.938512 201.550825
782 1 2.544828 2.938512 201.550825
783 1 3.817242 0.734628 201.550825
784 1 1.272414 0.734628 201.550825
785 2 2.544828 5.877032 203.628673
786 2 1.272414 8.080918 203.628673
787 2 2.544828 1.469260 203.628673
788 1 3.817242 3.673146 203.628673
789 1 1.272414 3.673146 203.628673
790 2 0.000000 1.469260 203.628673
791 2 3.817242 8.080918 203.628673
792 1 0.000000 5.877032 203.628673
793 2 2.544828 0.000000 205.706514
794 1 1.272414 2.203886 205.706514
795 1 3.817242 2.203886 205.706514
796 1 0.000000 0.000000 205.706514
797 1 2.544828 4.407772 205.706514
798 1 3.817242 6.611658 205.706514
799 2 1.272414 6.611658 205.706514
800 1 0.000000 4.407772 205.706514
801 2 0.000000 7.346283 207.784356
802 1 2.544828 7.346283 207.784356
803 2 3.817242 5.142398 207.784356
804 1 1.272414 5.142398 207.784356
805 2 0.000000 2.938512 207.784356
806 1 2.544828 2.938512 207.784356
807 2 3.817242 0.734628 207.784356
808 2 1.272414 0.734628 207.784356
809 2 2.544828 5.877032 209.862204
810 1 1.272414 8.080918 209.862204
811 1 2.544828 1.469260 209.862204
812 2 3.817242 3.673146 209.862204
813 2 1.272414 3.673146 209.862204
814 2 0.000000 1.469260 209.862204
815 2 3.817242 8.080918 209.862204
816 1 0.000000 5.877032 209.862204
817 2 2.544828 0.000000 211.940045
818 1 1.272414 2.203886 211.940045
819 2 3.817242 2.203886 211.940045
820 2 0.000000 0.000000 211.940045
821 2 2.544828 4.407772 211.940045
822 1 3.817242 6.611658 211.940045
823 1 1.272414 6.611658 211.940045
824 2 0.000000 4.407772 211.940045
825 1 0.000000 7.346283 214.017887
826 1 2.544828 7.346283 214.017887
827 2 3.817242 5.142398 214.017887
828 1 1.272414 5.142398 214.017887
829 1 0.000000 2.938512 214.017887
830 2 2.544828 2.938512 214.017887
831 1 3.817242 0.734628 214.017887
832 1 1.272414 0.734628 214.017887
833 2 2.544828 5.877032 216.095734
834 2 1.272414 8.080918 216.095734
835 2 2.544828 1.469260 216.095734
836 1 3.817242 3.673146 216.095734
837 2 1.272414 3.673146 216.095734
838 1 0.000000 1.469260 216.095734
839 1 3.817242 8.080918 216.095734
840 2 0.000000 5.877032 216.095734
841 2 2.544828 0.000000 218.173576
842 2 1.272414 2.203886 218.173576
843 2 3.817242 2.203886 218.173576
844 1 0.000000 0.000000 218.173576
845 2 2.544828 4.407772 218.173576
846 1 3.817242 6.611658 218.173576
847 2 1.272414 6.611658 218.173576
848 1 0.000000 4.407772 218.173576
849 1 0.000000 7.346283 220.251417
850 2 2.544828 7.346283 220.251417
851 1 3.817242 5.142398 220.251417
852 1 1.272414 5.142398 220.251417
853 2 0.000000 2.938512 220.251417
854 1 2.544828 2.938512 220.251417
855 1 3.817242 0.734628 220.251417
856 2 1.272414 0.734628 220.251417
857 2 2.544828 5.877032 222.329265
858 2 1.272414 8.080918 222.329265
859 1 2.544828 1.469260 222.329265
860 2 3.817242 3.673146 222.329265
861 1 1.272414 3.673146 222.329265
862 2 0.000000 1.469260 222.329265
863 1 3.817242 8.080918 222.329265
864 2 0.000000 5.877032 222.329265
865 1 2.544828 8.815544 0.000000