LAMMPS data file via write_data, version 27 Jun 2024, timestep = 1, units = metal

15552 atoms
2 atom types

0 30.46216013351647 xlo xhi
0 26.38100452977482 ylo yhi
0 223.8502463702017 zlo zhi

Masses

1 58.69
2 56.12

Atoms # atomic

1 2 2.538513 0.000000 0.000000
2 2 1.269257 2.198417 0.000000
3 1 3.807770 2.198417 0.000000
4 2 0.000000 0.000000 0.000000
5 1 2.538513 4.396834 0.000000
6 1 3.807770 6.595251 0.000000
7 2 1.269257 6.595251 0.000000
8 1 0.000000 4.396834 0.000000
9 2 0.000000 7.328054 2.072685
10 2 2.538513 7.328054 2.072685
11 1 3.807770 5.129637 2.072685
12 2 1.269257 5.129637 2.072685
13 2 0.000000 2.931220 2.072685
14 2 2.538513 2.931220 2.072685
15 1 3.807770 0.732805 2.072685
16 2 1.269257 0.732805 2.072685
17 2 2.538513 5.862448 4.145377
18 2 1.269257 8.060865 4.145377
19 1 2.538513 1.465614 4.145377
20 1 3.807770 3.664031 4.145377
21 2 1.269257 3.664031 4.145377
22 1 0.000000 1.465614 4.145377
23 2 3.807770 8.060865 4.145377
24 2 0.000000 5.862448 4.145377
25 2 2.538513 0.000000 6.218062
26 2 1.269257 2.198417 6.218062
27 2 3.807770 2.198417 6.218062
28 1 0.000000 0.000000 6.218062
29 2 2.538513 4.396834 6.218062
30 1 3.807770 6.595251 6.218062
31 2 1.269257 6.595251 6.218062
32 1 0.000000 4.396834 6.218062
33 1 0.000000 7.328054 8.290748
34 1 2.538513 7.328054 8.290748
35 1 3.807770 5.129637 8.290748
36 2 1.269257 5.129637 8.290748
37 1 0.000000 2.931220 8.290748
38 1 2.538513 2.931220 8.290748
39 1 3.807770 0.732805 8.290748
40 1 1.269257 0.732805 8.290748
41 2 2.538513 5.862448 10.363439
42 2 1.269257 8.060865 10.363439
43 2 2.538513 1.465614 10.363439
44 1 3.807770 3.664031 10.363439
45 1 1.269257 3.664031 10.363439
46 2 0.000000 1.465614 10.363439
47 1 3.807770 8.060865 10.363439
48 1 0.000000 5.862448 10.363439
49 1 2.538513 0.000000 12.436125
50 1 1.269257 2.198417 12.436125
51 2 3.807770 2.198417 12.436125
52 2 0.000000 0.000000 12.436125
53 2 2.538513 4.396834 12.436125
54 1 3.807770 6.595251 12.436125
55 1 1.269257 6.595251 12.436125
56 2 0.000000 4.396834 12.436125
57 2 0.000000 7.328054 14.508810
58 2 2.538513 7.328054 14.508810
59 2 3.807770 5.129637 14.508810
60 2 1.269257 5.129637 14.508810
61 2 0.000000 2.931220 14.508810
62 1 2.538513 2.931220 14.508810
63 2 3.807770 0.732805 14.508810
64 2 1.269257 0.732805 14.508810
65 1 2.538513 5.862448 16.581502
66 1 1.269257 8.060865 16.581502
67 2 2.538513 1.465614 16.581502
68 2 3.807770 3.664031 16.581502
69 2 1.269257 3.664031 16.581502
70 1 0.000000 1.465614 16.581502
71 2 3.807770 8.060865 16.581502
72 1 0.000000 5.862448 16.581502
73 2 2.538513 0.000000 18.654187
74 1 1.269257 2.198417 18.654187
75 1 3.807770 2.198417 18.654187
76 2 0.000000 0.000000 18.654187
77 1 2.538513 4.396834 18.654187
78 1 3.807770 6.595251 18.654187
79 2 1.269257 6.595251 18.654187
80 2 0.000000 4.396834 18.654187
81 1 0.000000 7.328054 20.726873
82 1 2.538513 7.328054 20.726873
83 2 3.807770 5.129637 20.726873
84 1 1.269257 5.129637 20.726873
85 1 0.000000 2.931220 20.726873
86 2 2.538513 2.931220 20.726873
87 2 3.807770 0.732805 20.726873
88 1 1.269257 0.732805 20.726873
89 2 2.538513 5.862448 22.799564
90 1 1.269257 8.060865 22.799564
91 1 2.538513 1.465614 22.799564
92 1 3.807770 3.664031 22.799564
93 1 1.269257 3.664031 22.799564
94 1 0.000000 1.465614 22.799564
95 2 3.807770 8.060865 22.799564
96 1 0.000000 5.862448 22.799564
97 1 2.538513 0.000000 24.872250
98 2 1.269257 2.198417 24.872250
99 1 3.807770 2.198417 24.872250
100 2 0.000000 0.000000 24.872250
101 1 2.538513 4.396834 24.872250
102 2 3.807770 6.595251 24.872250
103 1 1.269257 6.595251 24.872250
104 1 0.000000 4.396834 24.872250
105 1 0.000000 7.328054 26.944935
106 1 2.538513 7.328054 26.944935
107 2 3.807770 5.129637 26.944935
108 2 1.269257 5.129637 26.944935
109 1 0.000000 2.931220 26.944935
110 1 2.538513 2.931220 26.944935
111 1 3.807770 0.732805 26.944935
112 2 1.269257 0.732805 26.944935
113 2 2.538513 5.862448 29.017627
114 2 1.269257 8.060865 29.017627
115 1 2.538513 1.465614 29.017627
116 2 3.807770 3.664031 29.017627
117 2 1.269257 3.664031 29.017627
118 2 0.000000 1.465614 29.017627
119 1 3.807770 8.060865 29.017627
120 1 0.000000 5.862448 29.017627
121 1 2.538513 0.000000 31.090312
122 2 1.269257 2.198417 31.090312
123 2 3.807770 2.198417 31.090312
124 1 0.000000 0.000000 31.090312
125 1 2.538513 4.396834 31.090312
126 2 3.807770 6.595251 31.090312
127 2 1.269257 6.595251 31.090312
128 1 0.000000 4.396834 31.090312
129 1 0.000000 7.328054 33.162997
130 2 2.538513 7.328054 33.162997
131 2 3.807770 5.129637 33.162997
132 2 1.269257 5.129637 33.162997
133 1 0.000000 2.931220 33.162997
134 1 2.538513 2.931220 33.162997
135 2 3.807770 0.732805 33.162997
136 1 1.269257 0.732805 33.162997
137 1 2.538513 5.862448 35.235689
138 1 1.269257 8.060865 35.235689
139 1 2.538513 1.465614 35.235689
140 1 3.807770 3.664031 35.235689
141 1 1.269257 3.664031 35.235689
142 1 0.000000 1.465614 35.235689
143 2 3.807770 8.060865 35.235689
144 1 0.000000 5.862448 35.235689
145 2 2.538513 0.000000 37.308374
146 1 1.269257 2.198417 37.308374
147 1 3.807770 2.198417 37.308374
148 2 0.000000 0.000000 37.308374
149 1 2.538513 4.396834 37.308374
150 2 3.807770 6.595251 37.308374
151 2 1.269257 6.595251 37.308374
152 2 0.000000 4.396834 37.308374
153 1 0.000000 7.328054 39.381060
154 1 2.538513 7.328054 39.381060
155 1 3.807770 5.129637 39.381060
156 2 1.269257 5.129637 39.381060
157 1 0.000000 2.931220 39.381060
158 1 2.538513 2.931220 39.381060
159 1 3.807770 0.732805 39.381060
160 2 1.269257 0.732805 39.381060
161 2 2.538513 5.862448 41.453751
162 2 1.269257 8.060865 41.453751
163 1 2.538513 1.465614 41.453751
164 2 3.807770 3.664031 41.453751
165 1 1.269257 3.664031 41.453751
166 1 0.000000 1.465614 41.453751
167 2 3.807770 8.060865 41.453751
168 1 0.000000 5.862448 41.453751
169 1 2.538513 0.000000 43.526437
170 1 1.269257 2.198417 43.526437
171 2 3.807770 2.198417 43.526437
172 2 0.000000 0.000000 43.526437
173 2 2.538513 4.396834 43.526437
174 1 3.807770 6.595251 43.526437
175 1 1.269257 6.595251 43.526437
176 2 0.000000 4.396834 43.526437
177 2 0.000000 7.328054 45.599122
178 1 2.538513 7.328054 45.599122
179 1 3.807770 5.129637 45.599122
180 2 1.269257 5.129637 45.599122
181 2 0.000000 2.931220 45.599122
182 2 2.538513 2.931220 45.599122
183 2 3.807770 0.732805 45.599122
184 2 1.269257 0.732805 45.599122
185 2 2.538513 5.862448 47.671814
186 1 1.269257 8.060865 47.671814
187 2 2.538513 1.465614 47.671814
188 1 3.807770 3.664031 47.671814
189 2 1.269257 3.664031 47.671814
190 1 0.000000 1.465614 47.671814
191 2 3.807770 8.060865 47.671814
192 2 0.000000 5.862448 47.671814
193 1 2.538513 0.000000 49.744499
194 2 1.269257 2.198417 49.744499
195 1 3.807770 2.198417 49.744499
196 2 0.000000 0.000000 49.744499
197 2 2.538513 4.396834 49.744499
198 1 3.807770 6.595251 49.744499
199 2 1.269257 6.595251 49.744499
200 2 0.000000 4.396834 49.744499
201 1 0.000000 7.328054 51.817185
202 1 2.538513 7.328054 51.817185
203 1 3.807770 5.129637 51.817185
204 2 1.269257 5.129637 51.817185
205 1 0.000000 2.931220 51.817185
206 1 2.538513 2.931220 51.817185
207 2 3.807770 0.732805 51.817185
208 1 1.269257 0.732805 51.817185
209 1 2.538513 5.862448 53.889876
210 1 1.269257 8.060865 53.889876
211 1 2.538513 1.465614 53.889876
212 2 3.807770 3.664031 53.889876
213 2 1.269257 3.664031 53.889876
214 2 0.000000 1.465614 53.889876
215 2 3.807770 8.060865 53.889876
216 2 0.000000 5.862448 53.889876
217 1 2.538513 0.000000 55.962562
218 2 1.269257 2.198417 55.962562
219 1 3.807770 2.198417 55.962562
220 2 0.000000 0.000000 55.962562
221 1 2.538513 4.396834 55.962562
222 2 3.807770 6.595251 55.962562
223 2 1.269257 6.595251 55.962562
224 2 0.000000 4.396834 55.962562
225 2 0.000000 7.328054 58.035247
226 1 2.538513 7.328054 58.035247
227 2 3.807770 5.129637 58.035247
228 1 1.269257 5.129637 58.035247
229 1 0.000000 2.931220 58.035247
230 1 2.538513 2.931220 58.035247
231 2 3.807770 0.732805 58.035247
232 2 1.269257 0.732805 58.035247
233 2 2.538513 5.862448 60.107939
234 1 1.269257 8.060865 60.107939
235 2 2.538513 1.465614 60.107939
236 1 3.807770 3.664031 60.107939
237 2 1.269257 3.664031 60.107939
238 2 0.000000 1.465614 60.107939
239 2 3.807770 8.060865 60.107939
240 1 0.000000 5.862448 60.107939
241 1 2.538513 0.000000 62.180624
242 2 1.269257 2.198417 62.180624
243 2 3.807770 2.198417 62.180624
244 2 0.000000 0.000000 62.180624
245 1 2.538513 4.396834 62.180624
246 2 3.807770 6.595251 62.180624
247 2 1.269257 6.595251 62.180624
248 1 0.000000 4.396834 62.180624
249 2 0.000000 7.328054 64.253309
250 1 2.538513 7.328054 64.253309
251 2 3.807770 5.129637 64.253309
252 1 1.269257 5.129637 64.253309
253 2 0.000000 2.931220 64.253309
254 1 2.538513 2.931220 64.253309
255 1 3.807770 0.732805 64.253309
256 1 1.269257 0.732805 64.253309
257 1 2.538513 5.862448 66.326001
258 2 1.269257 8.060865 66.326001
259 2 2.538513 1.465614 66.326001
260 2 3.807770 3.664031 66.326001
261 1 1.269257 3.664031 66.326001
262 1 0.000000 1.465614 66.326001
263 1 3.807770 8.060865 66.326001
264 1 0.000000 5.862448 66.326001
265 1 2.538513 0.000000 68.398686
266 2 1.269257 2.198417 68.398686
267 2 3.807770 2.198417 68.398686
268 1 0.000000 0.000000 68.398686
269 2 2.538513 4.396834 68.398686
270 2 3.807770 6.595251 68.398686
271 2 1.269257 6.595251 68.398686
272 1 0.000000 4.396834 68.398686
273 2 0.000000 7.328054 70.471372
274 2 2.538513 7.328054 70.471372
275 2 3.807770 5.129637 70.471372
276 1 1.269257 5.129637 70.471372
277 1 0.000000 2.931220 70.471372
278 1 2.538513 2.931220 70.471372
279 2 3.807770 0.732805 70.471372
280 1 1.269257 0.732805 70.471372
281 2 2.538513 5.862448 72.544063
282 2 1.269257 8.060865 72.544063
283 2 2.538513 1.465614 72.544063
284 1 3.807770 3.664031 72.544063
285 2 1.269257 3.664031 72.544063
286 1 0.000000 1.465614 72.544063
287 1 3.807770 8.060865 72.544063
288 2 0.000000 5.862448 72.544063
289 1 2.538513 0.000000 74.616749
290 1 1.269257 2.198417 74.616749
291 2 3.807770 2.198417 74.616749
292 1 0.000000 0.000000 74.616749
293 2 2.538513 4.396834 74.616749
294 1 3.807770 6.595251 74.616749
295 2 1.269257 6.595251 74.616749
296 2 0.000000 4.396834 74.616749
297 2 0.000000 7.328054 76.689434
298 2 2.538513 7.328054 76.689434
299 1 3.807770 5.129637 76.689434
300 1 1.269257 5.129637 76.689434
301 1 0.000000 2.931220 76.689434
302 1 2.538513 2.931220 76.689434
303 1 3.807770 0.732805 76.689434
304 2 1.269257 0.732805 76.689434
305 2 2.538513 5.862448 78.762126
306 2 1.269257 8.060865 78.762126
307 2 2.538513 1.465614 78.762126
308 2 3.807770 3.664031 78.762126
309 1 1.269257 3.664031 78.762126
310 2 0.000000 1.465614 78.762126
311 2 3.807770 8.060865 78.762126
312 2 0.000000 5.862448 78.762126
313 2 2.538513 0.000000 80.834811
314 1 1.269257 2.198417 80.834811
315 2 3.807770 2.198417 80.834811
316 1 0.000000 0.000000 80.834811
317 2 2.538513 4.396834 80.834811
318 2 3.807770 6.595251 80.834811
319 1 1.269257 6.595251 80.834811
320 1 0.000000 4.396834 80.834811
321 1 0.000000 7.328054 82.907497
322 2 2.538513 7.328054 82.907497
323 1 3.807770 5.129637 82.907497
324 1 1.269257 5.129637 82.907497
325 2 0.000000 2.931220 82.907497
326 2 2.538513 2.931220 82.907497
327 2 3.807770 0.732805 82.907497
328 1 1.269257 0.732805 82.907497
329 2 2.538513 5.862448 84.980188
330 1 1.269257 8.060865 84.980188
331 2 2.538513 1.465614 84.980188
332 2 3.807770 3.664031 84.980188
333 2 1.269257 3.664031 84.980188
334 2 0.000000 1.465614 84.980188
335 2 3.807770 8.060865 84.980188
336 1 0.000000 5.862448 84.980188
337 2 2.538513 0.000000 87.052874
338 2 1.269257 2.198417 87.052874
339 2 3.807770 2.198417 87.052874
340 1 0.000000 0.000000 87.052874
341 1 2.538513 4.396834 87.052874
342 1 3.807770 6.595251 87.052874
343 2 1.269257 6.595251 87.052874
344 2 0.000000 4.396834 87.052874
345 1 0.000000 7.328054 89.125559
346 1 2.538513 7.328054 89.125559
347 1 3.807770 5.129637 89.125559
348 2 1.269257 5.129637 89.125559
349 2 0.000000 2.931220 89.125559
350 2 2.538513 2.931220 89.125559
351 1 3.807770 0.732805 89.125559
352 1 1.269257 0.732805 89.125559
353 2 2.538513 5.862448 91.198251
354 2 1.269257 8.060865 91.198251
355 1 2.538513 1.465614 91.198251
356 2 3.807770 3.664031 91.198251
357 1 1.269257 3.664031 91.198251
358 1 0.000000 1.465614 91.198251
359 1 3.807770 8.060865 91.198251
360 2 0.000000 5.862448 91.198251
361 2 2.538513 0.000000 93.270936
362 2 1.269257 2.198417 93.270936
363 1 3.807770 2.198417 93.270936
364 1 0.000000 0.000000 93.270936
365 2 2.538513 4.396834 93.270936
366 2 3.807770 6.595251 93.270936
367 2 1.269257 6.595251 93.270936
368 1 0.000000 4.396834 93.270936
369 2 0.000000 7.328054 95.343621
370 1 2.538513 7.328054 95.343621
371 1 3.807770 5.129637 95.343621
372 1 1.269257 5.129637 95.343621
373 2 0.000000 2.931220 95.343621
374 1 2.538513 2.931220 95.343621
375 1 3.807770 0.732805 95.343621
376 1 1.269257 0.732805 95.343621
377 1 2.538513 5.862448 97.416313
378 2 1.269257 8.060865 97.416313
379 1 2.538513 1.465614 97.416313
380 1 3.807770 3.664031 97.416313
381 2 1.269257 3.664031 97.416313
382 1 0.000000 1.465614 97.416313
383 1 3.807770 8.060865 97.416313
384 1 0.000000 5.862448 97.416313
385 2 2.538513 0.000000 99.488998
386 2 1.269257 2.198417 99.488998
387 2 3.807770 2.198417 99.488998
388 2 0.000000 0.000000 99.488998
389 1 2.538513 4.396834 99.488998
390 2 3.807770 6.595251 99.488998
391 1 1.269257 6.595251 99.488998
392 1 0.000000 4.396834 99.488998
393 1 0.000000 7.328054 101.561684
394 2 2.538513 7.328054 101.561684
395 1 3.807770 5.129637 101.561684
396 1 1.269257 5.129637 101.561684
397 2 0.000000 2.931220 101.561684
398 2 2.538513 2.931220 101.561684
399 2 3.807770 0.732805 101.561684
400 1 1.269257 0.732805 101.561684
401 2 2.538513 5.862448 103.634375
402 2 1.269257 8.060865 103.634375
403 1 2.538513 1.465614 103.634375
404 1 3.807770 3.664031 103.634375
405 2 1.269257 3.664031 103.634375
406 2 0.000000 1.465614 103.634375
407 1 3.807770 8.060865 103.634375
408 1 0.000000 5.862448 103.634375
409 2 2.538513 0.000000 105.707061
410 1 1.269257 2.198417 105.707061
411 1 3.807770 2.198417 105.707061
412 2 0.000000 0.000000 105.707061
413 1 2.538513 4.396834 105.707061
414 1 3.807770 6.595251 105.707061
415 1 1.269257 6.595251 105.707061
416 1 0.000000 4.396834 105.707061
417 2 0.000000 7.328054 107.779746
418 1 2.538513 7.328054 107.779746
419 2 3.807770 5.129637 107.779746
420 1 1.269257 5.129637 107.779746
421 2 0.000000 2.931220 107.779746
422 1 2.538513 2.931220 107.779746
423 1 3.807770 0.732805 107.779746
424 2 1.269257 0.732805 107.779746
425 1 2.538513 5.862448 109.852438
426 1 1.269257 8.060865 109.852438
427 1 2.538513 1.465614 109.852438
428 1 3.807770 3.664031 109.852438
429 2 1.269257 3.664031 109.852438
430 2 0.000000 1.465614 109.852438
431 2 3.807770 8.060865 109.852438
432 1 0.000000 5.862448 109.852438
433 1 2.538513 0.000000 111.925123
434 2 1.269257 2.198417 111.925123
435 2 3.807770 2.198417 111.925123
436 2 0.000000 0.000000 111.925123
437 1 2.538513 4.396834 111.925123
438 2 3.807770 6.595251 111.925123
439 2 1.269257 6.595251 111.925123
440 1 0.000000 4.396834 111.925123
441 2 0.000000 7.328054 113.997809
442 1 2.538513 7.328054 113.997809
443 2 3.807770 5.129637 113.997809
444 1 1.269257 5.129637 113.997809
445 1 0.000000 2.931220 113.997809
446 1 2.538513 2.931220 113.997809
447 1 3.807770 0.732805 113.997809
448 2 1.269257 0.732805 113.997809
449 2 2.538513 5.862448 116.070500
450 1 1.269257 8.060865 116.070500
451 1 2.538513 1.465614 116.070500
452 2 3.807770 3.664031 116.070500
453 2 1.269257 3.664031 116.070500
454 2 0.000000 1.465614 116.070500
455 1 3.807770 8.060865 116.070500
456 1 0.000000 5.862448 116.070500
457 2 2.538513 0.000000 118.143186
458 2 1.269257 2.198417 118.143186
459 1 3.807770 2.198417 118.143186
460 1 0.000000 0.000000 118.143186
461 1 2.538513 4.396834 118.143186
462 2 3.807770 6.595251 118.143186
463 1 1.269257 6.595251 118.143186
464 1 0.000000 4.396834 118.143186
465 2 0.000000 7.328054 120.215871
466 2 2.538513 7.328054 120.215871
467 1 3.807770 5.129637 120.215871
468 2 1.269257 5.129637 120.215871
469 1 0.000000 2.931220 120.215871
470 2 2.538513 2.931220 120.215871
471 2 3.807770 0.732805 120.215871
472 1 1.269257 0.732805 120.215871
473 1 2.538513 5.862448 122.288563
474 1 1.269257 8.060865 122.288563
475 1 2.538513 1.465614 122.288563
476 1 3.807770 3.664031 122.288563
477 2 1.269257 3.664031 122.288563
478 2 0.000000 1.465614 122.288563
479 2 3.807770 8.060865 122.288563
480 2 0.000000 5.862448 122.288563
481 2 2.538513 0.000000 124.361248
482 1 1.269257 2.198417 124.361248
483 1 3.807770 2.198417 124.361248
484 2 0.000000 0.000000 124.361248
485 1 2.538513 4.396834 124.361248
486 1 3.807770 6.595251 124.361248
487 2 1.269257 6.595251 124.361248
488 2 0.000000 4.396834 124.361248
489 1 0.000000 7.328054 126.433933
490 2 2.538513 7.328054 126.433933
491 2 3.807770 5.129637 126.433933
492 1 1.269257 5.129637 126.433933
493 2 0.000000 2.931220 126.433933
494 2 2.538513 2.931220 126.433933
495 1 3.807770 0.732805 126.433933
496 1 1.269257 0.732805 126.433933
497 1 2.538513 5.862448 128.506625
498 1 1.269257 8.060865 128.506625
499 2 2.538513 1.465614 128.506625
500 1 3.807770 3.664031 128.506625
501 2 1.269257 3.664031 128.506625
502 2 0.000000 1.465614 128.506625
503 1 3.807770 8.060865 128.506625
504 2 0.000000 5.862448 128.506625
505 1 2.538513 0.000000 130.579310
506 1 1.269257 2.198417 130.579310
507 2 3.807770 2.198417 130.579310
508 2 0.000000 0.000000 130.579310
509 2 2.538513 4.396834 130.579310
510 2 3.807770 6.595251 130.579310
511 2 1.269257 6.595251 130.579310
512 1 0.000000 4.396834 130.579310
513 1 0.000000 7.328054 132.651996
514 2 2.538513 7.328054 132.651996
515 1 3.807770 5.129637 132.651996
516 2 1.269257 5.129637 132.651996
517 2 0.000000 2.931220 132.651996
518 1 2.538513 2.931220 132.651996
519 1 3.807770 0.732805 132.651996
520 1 1.269257 0.732805 132.651996
521 1 2.538513 5.862448 134.724687
522 1 1.269257 8.060865 134.724687
523 2 2.538513 1.465614 134.724687
524 1 3.807770 3.664031 134.724687
525 1 1.269257 3.664031 134.724687
526 1 0.000000 1.465614 134.724687
527 1 3.807770 8.060865 134.724687
528 1 0.000000 5.862448 134.724687
529 1 2.538513 0.000000 136.797373
530 1 1.269257 2.198417 136.797373
531 1 3.807770 2.198417 136.797373
532 2 0.000000 0.000000 136.797373
533 2 2.538513 4.396834 136.797373
534 2 3.807770 6.595251 136.797373
535 2 1.269257 6.595251 136.797373
536 1 0.000000 4.396834 136.797373
537 2 0.000000 7.328054 138.870058
538 1 2.538513 7.328054 138.870058
539 2 3.807770 5.129637 138.870058
540 1 1.269257 5.129637 138.870058
541 1 0.000000 2.931220 138.870058
542 1 2.538513 2.931220 138.870058
543 2 3.807770 0.732805 138.870058
544 2 1.269257 0.732805 138.870058
545 1 2.538513 5.862448 140.942750
546 2 1.269257 8.060865 140.942750
547 2 2.538513 1.465614 140.942750
548 1 3.807770 3.664031 140.942750
549 1 1.269257 3.664031 140.942750
550 1 0.000000 1.465614 140.942750
551 1 3.807770 8.060865 140.942750
552 1 0.000000 5.862448 140.942750
553 2 2.538513 0.000000 143.015435
554 2 1.269257 2.198417 143.015435
555 1 3.807770 2.198417 143.015435
556 1 0.000000 0.000000 143.015435
557 2 2.538513 4.396834 143.015435
558 1 3.807770 6.595251 143.015435
559 1 1.269257 6.595251 143.015435
560 1 0.000000 4.396834 143.015435
561 1 0.000000 7.328054 145.088121
562 1 2.538513 7.328054 145.088121
563 1 3.807770 5.129637 145.088121
564 1 1.269257 5.129637 145.088121
565 2 0.000000 2.931220 145.088121
566 2 2.538513 2.931220 145.088121
567 2 3.807770 0.732805 145.088121
568 2 1.269257 0.732805 145.088121
569 2 2.538513 5.862448 147.160812
570 1 1.269257 8.060865 147.160812
571 2 2.538513 1.465614 147.160812
572 1 3.807770 3.664031 147.160812
573 2 1.269257 3.664031 147.160812
574 1 0.000000 1.465614 147.160812
575 1 3.807770 8.060865 147.160812
576 2 0.000000 5.862448 147.160812
577 2 2.538513 0.000000 149.233498
578 2 1.269257 2.198417 149.233498
579 1 3.807770 2.198417 149.233498
580 1 0.000000 0.000000 149.233498
581 1 2.538513 4.396834 149.233498
582 1 3.807770 6.595251 149.233498
583 2 1.269257 6.595251 149.233498
584 1 0.000000 4.396834 149.233498
585 2 0.000000 7.328054 151.306183
586 2 2.538513 7.328054 151.306183
587 1 3.807770 5.129637 151.306183
588 1 1.269257 5.129637 151.306183
589 2 0.000000 2.931220 151.306183
590 1 2.538513 2.931220 151.306183
591 1 3.807770 0.732805 151.306183
592 2 1.269257 0.732805 151.306183
593 2 2.538513 5.862448 153.378875
594 1 1.269257 8.060865 153.378875
595 2 2.538513 1.465614 153.378875
596 1 3.807770 3.664031 153.378875
597 1 1.269257 3.664031 153.378875
598 2 0.000000 1.465614 153.378875
599 2 3.807770 8.060865 153.378875
600 1 0.000000 5.862448 153.378875
601 2 2.538513 0.000000 155.451560
602 1 1.269257 2.198417 155.451560
603 2 3.807770 2.198417 155.451560
604 2 0.000000 0.000000 155.451560
605 1 2.538513 4.396834 155.451560
606 2 3.807770 6.595251 155.451560
607 1 1.269257 6.595251 155.451560
608 1 0.000000 4.396834 155.451560
609 2 0.000000 7.328054 157.524245
610 1 2.538513 7.328054 157.524245
611 1 3.807770 5.129637 157.524245
612 1 1.269257 5.129637 157.524245
613 2 0.000000 2.931220 157.524245
614 2 2.538513 2.931220 157.524245
615 2 3.807770 0.732805 157.524245
616 1 1.269257 0.732805 157.524245
617 1 2.538513 5.862448 159.596937
618 2 1.269257 8.060865 159.596937
619 1 2.538513 1.465614 159.596937
620 2 3.807770 3.664031 159.596937
621 2 1.269257 3.664031 159.596937
622 2 0.000000 1.465614 159.596937
623 1 3.807770 8.060865 159.596937
624 1 0.000000 5.862448 159.596937
625 1 2.538513 0.000000 161.669622
626 2 1.269257 2.198417 161.669622
627 1 3.807770 2.198417 161.669622
628 2 0.000000 0.000000 161.669622
629 2 2.538513 4.396834 161.669622
630 2 3.807770 6.595251 161.669622
631 2 1.269257 6.595251 161.669622
632 2 0.000000 4.396834 161.669622
633 2 0.000000 7.328054 163.742308
634 1 2.538513 7.328054 163.742308
635 1 3.807770 5.129637 163.742308
636 2 1.269257 5.129637 163.742308
637 2 0.000000 2.931220 163.742308
638 1 2.538513 2.931220 163.742308
639 1 3.807770 0.732805 163.742308
640 1 1.269257 0.732805 163.742308
641 1 2.538513 5.862448 165.814999
642 1 1.269257 8.060865 165.814999
643 1 2.538513 1.465614 165.814999
644 1 3.807770 3.664031 165.814999
645 1 1.269257 3.664031 165.814999
646 2 0.000000 1.465614 165.814999
647 2 3.807770 8.060865 165.814999
648 1 0.000000 5.862448 165.814999
649 2 2.538513 0.000000 167.887685
650 2 1.269257 2.198417 167.887685
651 1 3.807770 2.198417 167.887685
652 2 0.000000 0.000000 167.887685
653 1 2.538513 4.396834 167.887685
654 1 3.807770 6.595251 167.887685
655 2 1.269257 6.595251 167.887685
656 2 0.000000 4.396834 167.887685
657 2 0.000000 7.328054 169.960370
658 1 2.538513 7.328054 169.960370
659 1 3.807770 5.129637 169.960370
660 1 1.269257 5.129637 169.960370
661 1 0.000000 2.931220 169.960370
662 2 2.538513 2.931220 169.960370
663 1 3.807770 0.732805 169.960370
664 1 1.269257 0.732805 169.960370
665 2 2.538513 5.862448 172.033062
666 1 1.269257 8.060865 172.033062
667 2 2.538513 1.465614 172.033062
668 2 3.807770 3.664031 172.033062
669 1 1.269257 3.664031 172.033062
670 1 0.000000 1.465614 172.033062
671 2 3.807770 8.060865 172.033062
672 2 0.000000 5.862448 172.033062
673 1 2.538513 0.000000 174.105747
674 2 1.269257 2.198417 174.105747
675 1 3.807770 2.198417 174.105747
676 1 0.000000 0.000000 174.105747
677 1 2.538513 4.396834 174.105747
678 1 3.807770 6.595251 174.105747
679 2 1.269257 6.595251 174.105747
680 2 0.000000 4.396834 174.105747
681 1 0.000000 7.328054 176.178433
682 2 2.538513 7.328054 176.178433
683 1 3.807770 5.129637 176.178433
684 2 1.269257 5.129637 176.178433
685 1 0.000000 2.931220 176.178433
686 1 2.538513 2.931220 176.178433
687 1 3.807770 0.732805 176.178433
688 2 1.269257 0.732805 176.178433
689 2 2.538513 5.862448 178.251124
690 1 1.269257 8.060865 178.251124
691 1 2.538513 1.465614 178.251124
692 2 3.807770 3.664031 178.251124
693 1 1.269257 3.664031 178.251124
694 2 0.000000 1.465614 178.251124
695 2 3.807770 8.060865 178.251124
696 2 0.000000 5.862448 178.251124
697 1 2.538513 0.000000 180.323810
698 2 1.269257 2.198417 180.323810
699 2 3.807770 2.198417 180.323810
700 1 0.000000 0.000000 180.323810
701 2 2.538513 4.396834 180.323810
702 1 3.807770 6.595251 180.323810
703 1 1.269257 6.595251 180.323810
704 2 0.000000 4.396834 180.323810
705 1 0.000000 7.328054 182.396495
706 1 2.538513 7.328054 182.396495
707 2 3.807770 5.129637 182.396495
708 2 1.269257 5.129637 182.396495
709 1 0.000000 2.931220 182.396495
710 1 2.538513 2.931220 182.396495
711 1 3.807770 0.732805 182.396495
712 1 1.269257 0.732805 182.396495
713 1 2.538513 5.862448 184.469187
714 1 1.269257 8.060865 184.469187
715 1 2.538513 1.465614 184.469187
716 1 3.807770 3.664031 184.469187
717 2 1.269257 3.664031 184.469187
718 1 0.000000 1.465614 184.469187
719 2 3.807770 8.060865 184.469187
720 1 0.000000 5.862448 184.469187
721 1 2.538513 0.000000 186.541872
722 1 1.269257 2.198417 186.541872
723 1 3.807770 2.198417 186.541872
724 1 0.000000 0.000000 186.541872
725 2 2.538513 4.396834 186.541872
726 2 3.807770 6.595251 186.541872
727 1 1.269257 6.595251 186.541872
728 1 0.000000 4.396834 186.541872
729 2 0.000000 7.328054 188.614557
730 1 2.538513 7.328054 188.614557
731 2 3.807770 5.129637 188.614557
732 1 1.269257 5.129637 188.614557
733 2 0.000000 2.931220 188.614557
734 2 2.538513 2.931220 188.614557
735 1 3.807770 0.732805 188.614557
736 2 1.269257 0.732805 188.614557
737 2 2.538513 5.862448 190.687249
738 2 1.269257 8.060865 190.687249
739 2 2.538513 1.465614 190.687249
740 1 3.807770 3.664031 190.687249
741 2 1.269257 3.664031 190.687249
742 1 0.000000 1.465614 190.687249
743 1 3.807770 8.060865 190.687249
744 2 0.000000 5.862448 190.687249
745 2 2.538513 0.000000 192.759934
746 1 1.269257 2.198417 192.759934
747 2 3.807770 2.198417 192.759934
748 2 0.000000 0.000000 192.759934
749 1 2.538513 4.396834 192.759934
750 1 3.807770 6.595251 192.759934
751 1 1.269257 6.595251 192.759934
752 2 0.000000 4.396834 192.759934
753 2 0.000000 7.328054 194.832620
754 1 2.538513 7.328054 194.832620
755 1 3.807770 5.129637 194.832620
756 1 1.269257 5.129637 194.832620
757 1 0.000000 2.931220 194.832620
758 2 2.538513 2.931220 194.832620
759 1 3.807770 0.732805 194.832620
760 1 1.269257 0.732805 194.832620
761 2 2.538513 5.862448 196.905311
762 2 1.269257 8.060865 196.905311
763 2 2.538513 1.465614 196.905311
764 2 3.807770 3.664031 196.905311
765 2 1.269257 3.664031 196.905311
766 1 0.000000 1.465614 196.905311
767 1 3.807770 8.060865 196.905311
768 1 0.000000 5.862448 196.905311
769 1 2.538513 0.000000 198.977997
770 2 1.269257 2.198417 198.977997
771 1 3.807770 2.198417 198.977997
772 1 0.000000 0.000000 198.977997
773 1 2.538513 4.396834 198.977997
774 2 3.807770 6.595251 198.977997
775 2 1.269257 6.595251 198.977997
776 1 0.000000 4.396834 198.977997
777 2 0.000000 7.328054 201.050682
778 1 2.538513 7.328054 201.050682
779 1 3.807770 5.129637 201.050682
780 2 1.269257 5.129637 201.050682
781 1 0.000000 2.931220 201.050682
782 2 2.538513 2.931220 201.050682
783 1 3.807770 0.732805 201.050682
784 1 1.269257 0.732805 201.050682
785 1 2.538513 5.862448 203.123374
786 2 1.269257 8.060865 203.123374
787 2 2.538513 1.465614 203.123374
788 2 3.807770 3.664031 203.123374
789 2 1.269257 3.664031 203.123374
790 2 0.000000 1.465614 203.123374
791 1 3.807770 8.060865 203.123374
792 2 0.000000 5.862448 203.123374
793 1 2.538513 0.000000 205.196059
794 2 1.269257 2.198417 205.196059
795 2 3.807770 2.198417 205.196059
796 1 0.000000 0.000000 205.196059
797 2 2.538513 4.396834 205.196059
798 2 3.807770 6.595251 205.196059
799 1 1.269257 6.595251 205.196059
800 1 0.000000 4.396834 205.196059
801 2 0.000000 7.328054 207.268745
802 2 2.538513 7.328054 207.268745
803 2 3.807770 5.129637 207.268745
804 1 1.269257 5.129637 207.268745
805 1 0.000000 2.931220 207.268745
806 1 2.538513 2.931220 207.268745
807 1 3.807770 0.732805 207.268745
808 1 1.269257 0.732805 207.268745
809 1 2.538513 5.862448 209.341436
810 2 1.269257 8.060865 209.341436
811 1 2.538513 1.465614 209.341436
812 2 3.807770 3.664031 209.341436
813 2 1.269257 3.664031 209.341436
814 1 0.000000 1.465614 209.341436
815 1 3.807770 8.060865 209.341436
816 1 0.000000 5.862448 209.341436
817 1 2.538513 0.000000 211.414122
818 1 1.269257 2.198417 211.414122
819 2 3.807770 2.198417 211.414122
820 2 0.000000 0.000000 211.414122
821 1 2.538513 4.396834 211.414122
822 2 3.807770 6.595251 211.414122
823 1 1.269257 6.595251 211.414122
824 2 0.000000 4.396834 211.414122
825 1 0.000000 7.328054 213.486807
826 1 2.538513 7.328054 213.486807
827 1 3.807770 5.129637 213.486807
828 1 1.269257 5.129637 213.486807
829 1 0.000000 2.931220 213.486807
830 1 2.538513 2.931220 213.486807
831 1 3.807770 0.732805 213.486807
832 1 1.269257 0.732805 213.486807
833 2 2.538513 5.862448 215.559499
834 2 1.269257 8.060865 215.559499
835 1 2.538513 1.465614 215.559499
836 2 3.807770 3.664031 215.559499
837 1 1.269257 3.664031 215.559499
838 2 0.000000 1.465614 215.559499
839 1 3.807770 8.060865 215.559499
840 2 0.000000 5.862448 215.559499
841 1 2.538513 0.000000 217.632184
842 2 1.269257 2.198417 217.632184
843 2 3.807770 2.198417 217.632184
844 2 0.000000 0.000000 217.632184
845 1 2.538513 4.396834 217.632184
846 2 3.807770 6.595251 217.632184
847 1 1.269257 6.595251 217.632184
848 1 0.000000 4.396834 217.632184
849 2 0.000000 7.328054 219.704869
850 2 2.538513 7.328054 219.704869
851 2 3.807770 5.129637 219.704869
852 1 1.269257 5.129637 219.704869
853 1 0.000000 2.931220 219.704869
854 1 2.538513 2.931220 219.704869
855 2 3.807770 0.732805 219.704869
856 2 1.269257 0.732805 219.704869
857 1 2.538513 5.862448 221.777561
858 2 1.269257 8.060865 221.777561
859 1 2.538513 1.465614 221.777561
860 1 3.807770 3.664031 221.777561
861 1 1.269257 3.664031 221.777561
862 2 0.000000 1.465614 221.777561
863 2 3.807770 8.060865 221.777561
864 1 0.000000 5.862448 221.777561
865 2 2.538513 8.793668 0.000000